,pressure,atom_s,atom_p,atom_d,atom_f,ionization_energy,mass,en,row,pseudo_row,group,atomic_number,PNAS_en,element
369,50,2,0,1,4,6.2657,237.0,1.36,7,9,7,93,-5.4,Np
370,200,2,0,1,4,6.2657,237.0,1.36,7,9,7,93,-6.7,Np
371,500,2,0,1,4,6.2657,237.0,1.36,7,9,7,93,-6.97,Np
372,0,2,0,0,6,6.026,244.0,1.28,7,9,8,94,-0.49,Pu
373,50,2,0,0,6,6.026,244.0,1.28,7,9,8,94,-5.54,Pu
374,200,2,0,0,6,6.026,244.0,1.28,7,9,8,94,-6.68,Pu
375,500,2,0,0,6,6.026,244.0,1.28,7,9,8,94,-6.89,Pu
376,0,2,0,0,7,5.9738,243.0,1.3,7,9,9,95,-0.35,Am
377,50,2,0,0,7,5.9738,243.0,1.3,7,9,9,95,-5.76,Am
378,200,2,0,0,7,5.9738,243.0,1.3,7,9,9,95,-6.88,Am
379,500,2,0,0,7,5.9738,243.0,1.3,7,9,9,95,-7.17,Am
380,0,2,0,1,7,5.9914,247.0,1.3,7,9,10,96,-0.21,Cm
381,50,2,0,1,7,5.9914,247.0,1.3,7,9,10,96,-5.62,Cm
382,200,2,0,1,7,5.9914,247.0,1.3,7,9,10,96,-6.75,Cm
383,500,2,0,1,7,5.9914,247.0,1.3,7,9,10,96,-7.06,Cm