,pressure,atom_s,atom_p,atom_d,atom_f,ionization_energy,mass,en,row,pseudo_row,group,atomic_number,PNAS_en,element
0,0,1,0,0,0,13.5984,1.00794,2.2,1,1,1,1,4.32,H
1,50,1,0,0,0,13.5984,1.00794,2.2,1,1,1,1,1.35,H
2,200,1,0,0,0,13.5984,1.00794,2.2,1,1,1,1,0.67,H
3,500,1,0,0,0,13.5984,1.00794,2.2,1,1,1,1,0.36,H
4,0,2,0,0,0,24.5874,4.0026019999999995,3.89,1,1,18,2,6.14,He
5,50,2,0,0,0,24.5874,4.0026019999999995,3.89,1,1,18,2,1.14,He
6,200,2,0,0,0,24.5874,4.0026019999999995,3.89,1,1,18,2,0.49,He
7,500,2,0,0,0,24.5874,4.0026019999999995,3.89,1,1,18,2,0.2,He
8,0,1,0,0,0,5.3917,6.941,0.98,2,2,1,3,0.06,Li
9,50,1,0,0,0,5.3917,6.941,0.98,2,2,1,3,-7.14,Li
10,200,1,0,0,0,5.3917,6.941,0.98,2,2,1,3,-8.06,Li
11,500,1,0,0,0,5.3917,6.941,0.98,2,2,1,3,-7.88,Li
12,0,2,0,0,0,9.3227,9.012182000000001,1.57,2,2,2,4,1.42,Be
13,50,2,0,0,0,9.3227,9.012182000000001,1.57,2,2,2,4,-3.66,Be
14,200,2,0,0,0,9.3227,9.012182000000001,1.57,2,2,2,4,-6.03,Be
15,500,2,0,0,0,9.3227,9.012182000000001,1.57,2,2,2,4,-6.71,Be
16,0,2,1,0,0,8.298,10.811,2.04,2,2,13,5,1.6,B
17,50,2,1,0,0,8.298,10.811,2.04,2,2,13,5,-2.2,B
18,200,2,1,0,0,8.298,10.811,2.04,2,2,13,5,-3.77,B
19,500,2,1,0,0,8.298,10.811,2.04,2,2,13,5,-4.6,B
20,0,2,2,0,0,11.2603,12.0107,2.55,2,2,14,6,3.69,C
21,50,2,2,0,0,11.2603,12.0107,2.55,2,2,14,6,0.61,C
22,200,2,2,0,0,11.2603,12.0107,2.55,2,2,14,6,-0.7,C
23,500,2,2,0,0,11.2603,12.0107,2.55,2,2,14,6,-1.56,C
24,0,2,3,0,0,14.5341,14.0067,3.04,2,2,15,7,4.38,N
25,50,2,3,0,0,14.5341,14.0067,3.04,2,2,15,7,1.75,N
26,200,2,3,0,0,14.5341,14.0067,3.04,2,2,15,7,0.81,N
27,500,2,3,0,0,14.5341,14.0067,3.04,2,2,15,7,0.23,N
28,0,2,4,0,0,13.6181,15.9994,3.44,2,2,16,8,4.8,O
29,50,2,4,0,0,13.6181,15.9994,3.44,2,2,16,8,2.75,O
30,200,2,4,0,0,13.6181,15.9994,3.44,2,2,16,8,2.23,O
31,500,2,4,0,0,13.6181,15.9994,3.44,2,2,16,8,1.97,O
32,0,2,5,0,0,17.4228,18.998403200000002,3.98,2,2,17,9,7.31,F
33,50,2,5,0,0,17.4228,18.998403200000002,3.98,2,2,17,9,5.55,F
34,200,2,5,0,0,17.4228,18.998403200000002,3.98,2,2,17,9,5.23,F
35,500,2,5,0,0,17.4228,18.998403200000002,3.98,2,2,17,9,5.06,F
36,0,2,6,0,0,21.5645,20.1797,3.67,2,2,18,10,5.55,Ne
37,50,2,6,0,0,21.5645,20.1797,3.67,2,2,18,10,1.03,Ne
38,200,2,6,0,0,21.5645,20.1797,3.67,2,2,18,10,0.38,Ne
39,500,2,6,0,0,21.5645,20.1797,3.67,2,2,18,10,0.05,Ne
40,0,1,0,0,0,5.1391,22.98976928,0.93,3,3,1,11,-0.03,Na
41,50,1,0,0,0,5.1391,22.98976928,0.93,3,3,1,11,-7.28,Na
42,200,1,0,0,0,5.1391,22.98976928,0.93,3,3,1,11,-8.51,Na
43,500,1,0,0,0,5.1391,22.98976928,0.93,3,3,1,11,-8.32,Na
44,0,2,0,0,0,7.6462,24.305,1.31,3,3,2,12,0.78,Mg
45,50,2,0,0,0,7.6462,24.305,1.31,3,3,2,12,-5.23,Mg
46,200,2,0,0,0,7.6462,24.305,1.31,3,3,2,12,-7.34,Mg
47,500,2,0,0,0,7.6462,24.305,1.31,3,3,2,12,-8.32,Mg
48,0,2,1,0,0,5.9858,26.9815386,1.61,3,3,13,13,0.35,Al
49,50,2,1,0,0,5.9858,26.9815386,1.61,3,3,13,13,-4.83,Al
50,200,2,1,0,0,5.9858,26.9815386,1.61,3,3,13,13,-7.09,Al
51,500,2,1,0,0,5.9858,26.9815386,1.61,3,3,13,13,-7.69,Al
52,0,2,2,0,0,8.1517,28.0855,1.9,3,3,14,14,2.05,Si
53,50,2,2,0,0,8.1517,28.0855,1.9,3,3,14,14,-2.18,Si
54,200,2,2,0,0,8.1517,28.0855,1.9,3,3,14,14,-4.67,Si
55,500,2,2,0,0,8.1517,28.0855,1.9,3,3,14,14,-6.0,Si
56,0,2,3,0,0,10.4867,30.973762,2.19,3,3,15,15,2.69,P
57,50,2,3,0,0,10.4867,30.973762,2.19,3,3,15,15,-0.95,P
58,200,2,3,0,0,10.4867,30.973762,2.19,3,3,15,15,-2.8,P
59,500,2,3,0,0,10.4867,30.973762,2.19,3,3,15,15,-4.3,P
60,0,2,4,0,0,10.36,32.065,2.58,3,3,16,16,3.31,S
61,50,2,4,0,0,10.36,32.065,2.58,3,3,16,16,0.33,S
62,200,2,4,0,0,10.36,32.065,2.58,3,3,16,16,-1.12,S
63,500,2,4,0,0,10.36,32.065,2.58,3,3,16,16,-2.47,S
64,0,2,5,0,0,12.9676,35.453,3.16,3,3,17,17,5.37,Cl
65,50,2,5,0,0,12.9676,35.453,3.16,3,3,17,17,2.88,Cl
66,200,2,5,0,0,12.9676,35.453,3.16,3,3,17,17,1.45,Cl
67,500,2,5,0,0,12.9676,35.453,3.16,3,3,17,17,0.42,Cl
68,0,2,6,0,0,15.7596,39.948,3.3,3,3,18,18,4.58,Ar
69,50,2,6,0,0,15.7596,39.948,3.3,3,3,18,18,-0.34,Ar
70,200,2,6,0,0,15.7596,39.948,3.3,3,3,18,18,-1.4,Ar
71,500,2,6,0,0,15.7596,39.948,3.3,3,3,18,18,-2.06,Ar
72,0,1,0,0,0,4.3407,39.0983,0.82,4,4,1,19,-0.99,K
73,50,1,0,0,0,4.3407,39.0983,0.82,4,4,1,19,-7.1,K
74,200,1,0,0,0,4.3407,39.0983,0.82,4,4,1,19,-7.54,K
75,500,1,0,0,0,4.3407,39.0983,0.82,4,4,1,19,-7.38,K
76,0,2,0,0,0,6.1132,40.078,1.0,4,4,2,20,0.04,Ca
77,50,2,0,0,0,6.1132,40.078,1.0,4,4,2,20,-6.38,Ca
78,200,2,0,0,0,6.1132,40.078,1.0,4,4,2,20,-6.9,Ca
79,500,2,0,0,0,6.1132,40.078,1.0,4,4,2,20,-6.86,Ca
80,0,2,0,1,0,6.5615,44.955912,1.36,4,4,3,21,0.36,Sc
81,50,2,0,1,0,6.5615,44.955912,1.36,4,4,3,21,-6.14,Sc
82,200,2,0,1,0,6.5615,44.955912,1.36,4,4,3,21,-6.79,Sc
83,500,2,0,1,0,6.5615,44.955912,1.36,4,4,3,21,-6.79,Sc
84,0,2,0,2,0,6.8281,47.867,1.54,4,4,4,22,0.55,Ti
85,50,2,0,2,0,6.8281,47.867,1.54,4,4,4,22,-5.6,Ti
86,200,2,0,2,0,6.8281,47.867,1.54,4,4,4,22,-6.15,Ti
87,500,2,0,2,0,6.8281,47.867,1.54,4,4,4,22,-6.44,Ti
88,0,2,0,3,0,6.7462,50.9415,1.63,4,4,5,23,0.73,V
89,50,2,0,3,0,6.7462,50.9415,1.63,4,4,5,23,-4.82,V
90,200,2,0,3,0,6.7462,50.9415,1.63,4,4,5,23,-5.75,V
91,500,2,0,3,0,6.7462,50.9415,1.63,4,4,5,23,-5.64,V
92,0,1,0,5,0,6.7665,51.9961,1.66,4,4,6,24,0.91,Cr
93,50,1,0,5,0,6.7665,51.9961,1.66,4,4,6,24,-5.76,Cr
94,200,1,0,5,0,6.7665,51.9961,1.66,4,4,6,24,-5.94,Cr
95,500,1,0,5,0,6.7665,51.9961,1.66,4,4,6,24,-5.59,Cr
96,0,2,0,5,0,7.434,54.938044999999995,1.55,4,4,7,25,-0.21,Mn
97,50,2,0,5,0,7.434,54.938044999999995,1.55,4,4,7,25,-4.77,Mn
98,200,2,0,5,0,7.434,54.938044999999995,1.55,4,4,7,25,-5.48,Mn
99,500,2,0,5,0,7.434,54.938044999999995,1.55,4,4,7,25,-5.18,Mn
100,0,2,0,6,0,7.9024,55.845,1.83,4,4,8,26,1.35,Fe
101,50,2,0,6,0,7.9024,55.845,1.83,4,4,8,26,-4.85,Fe
102,200,2,0,6,0,7.9024,55.845,1.83,4,4,8,26,-5.09,Fe
103,500,2,0,6,0,7.9024,55.845,1.83,4,4,8,26,-4.84,Fe
104,0,2,0,7,0,7.881,58.933195,1.88,4,4,9,27,1.5,Co
105,50,2,0,7,0,7.881,58.933195,1.88,4,4,9,27,-3.96,Co
106,200,2,0,7,0,7.881,58.933195,1.88,4,4,9,27,-4.2,Co
107,500,2,0,7,0,7.881,58.933195,1.88,4,4,9,27,-3.75,Co
108,0,2,0,8,0,7.6399,58.6934,1.91,4,4,10,28,1.7,Ni
109,50,2,0,8,0,7.6399,58.6934,1.91,4,4,10,28,-3.18,Ni
110,200,2,0,8,0,7.6399,58.6934,1.91,4,4,10,28,-4.54,Ni
111,500,2,0,8,0,7.6399,58.6934,1.91,4,4,10,28,-4.36,Ni
112,0,1,0,10,0,7.7264,63.54600000000001,1.9,4,4,11,29,1.31,Cu
113,50,1,0,10,0,7.7264,63.54600000000001,1.9,4,4,11,29,-3.2,Cu
114,200,1,0,10,0,7.7264,63.54600000000001,1.9,4,4,11,29,-5.86,Cu
115,500,1,0,10,0,7.7264,63.54600000000001,1.9,4,4,11,29,-7.71,Cu
116,0,2,0,10,0,9.3942,65.40899999999999,1.65,4,4,12,30,1.0,Zn
117,50,2,0,10,0,9.3942,65.40899999999999,1.65,4,4,12,30,-3.47,Zn
118,200,2,0,10,0,9.3942,65.40899999999999,1.65,4,4,12,30,-5.26,Zn
119,500,2,0,10,0,9.3942,65.40899999999999,1.65,4,4,12,30,-6.25,Zn
120,0,2,1,0,0,5.9993,69.723,1.81,4,4,13,31,0.15,Ga
121,50,2,1,0,0,5.9993,69.723,1.81,4,4,13,31,-4.45,Ga
122,200,2,1,0,0,5.9993,69.723,1.81,4,4,13,31,-6.5,Ga
123,500,2,1,0,0,5.9993,69.723,1.81,4,4,13,31,-7.21,Ga
124,0,2,2,0,0,7.8994,72.64,2.01,4,4,14,32,1.69,Ge
125,50,2,2,0,0,7.8994,72.64,2.01,4,4,14,32,-2.61,Ge
126,200,2,2,0,0,7.8994,72.64,2.01,4,4,14,32,-4.77,Ge
127,500,2,2,0,0,7.8994,72.64,2.01,4,4,14,32,-6.07,Ge
128,0,2,3,0,0,9.7886,74.9216,2.18,4,4,15,33,2.49,As
129,50,2,3,0,0,9.7886,74.9216,2.18,4,4,15,33,-1.23,As
130,200,2,3,0,0,9.7886,74.9216,2.18,4,4,15,33,-3.04,As
131,500,2,3,0,0,9.7886,74.9216,2.18,4,4,15,33,-4.3,As
132,0,2,4,0,0,9.7524,78.96,2.55,4,4,16,34,3.09,Se
133,50,2,4,0,0,9.7524,78.96,2.55,4,4,16,34,-0.11,Se
134,200,2,4,0,0,9.7524,78.96,2.55,4,4,16,34,-1.69,Se
135,500,2,4,0,0,9.7524,78.96,2.55,4,4,16,34,-2.91,Se
136,0,2,5,0,0,11.8138,79.904,2.96,4,4,17,35,4.73,Br
137,50,2,5,0,0,11.8138,79.904,2.96,4,4,17,35,1.9,Br
138,200,2,5,0,0,11.8138,79.904,2.96,4,4,17,35,0.47,Br
139,500,2,5,0,0,11.8138,79.904,2.96,4,4,17,35,-0.74,Br
140,0,2,6,0,0,13.9996,83.79799999999999,3.0,4,4,18,36,3.4,Kr
141,50,2,6,0,0,13.9996,83.79799999999999,3.0,4,4,18,36,-1.09,Kr
142,200,2,6,0,0,13.9996,83.79799999999999,3.0,4,4,18,36,-2.12,Kr
143,500,2,6,0,0,13.9996,83.79799999999999,3.0,4,4,18,36,-2.72,Kr
144,0,1,0,0,0,4.1771,85.4678,0.82,5,5,1,37,-0.79,Rb
145,50,1,0,0,0,4.1771,85.4678,0.82,5,5,1,37,-7.03,Rb
146,200,1,0,0,0,4.1771,85.4678,0.82,5,5,1,37,-7.73,Rb
147,500,1,0,0,0,4.1771,85.4678,0.82,5,5,1,37,-7.69,Rb
148,0,2,0,0,0,5.6949,87.62,0.95,5,5,2,38,-0.18,Sr
149,50,2,0,0,0,5.6949,87.62,0.95,5,5,2,38,-6.13,Sr
150,200,2,0,0,0,5.6949,87.62,0.95,5,5,2,38,-6.87,Sr
151,500,2,0,0,0,5.6949,87.62,0.95,5,5,2,38,-7.0,Sr
152,0,2,0,1,0,6.2173,88.90585,1.22,5,5,3,39,0.28,Y
153,50,2,0,1,0,6.2173,88.90585,1.22,5,5,3,39,-5.8,Y
154,200,2,0,1,0,6.2173,88.90585,1.22,5,5,3,39,-6.33,Y
155,500,2,0,1,0,6.2173,88.90585,1.22,5,5,3,39,-6.46,Y
156,0,2,0,2,0,6.6339,91.22399999999999,1.33,5,5,4,40,0.56,Zr
157,50,2,0,2,0,6.6339,91.22399999999999,1.33,5,5,4,40,-4.98,Zr
158,200,2,0,2,0,6.6339,91.22399999999999,1.33,5,5,4,40,-5.97,Zr
159,500,2,0,2,0,6.6339,91.22399999999999,1.33,5,5,4,40,-6.26,Zr
160,0,1,0,4,0,6.7589,92.90638,1.6,5,5,5,41,0.79,Nb
161,50,1,0,4,0,6.7589,92.90638,1.6,5,5,5,41,-4.55,Nb
162,200,1,0,4,0,6.7589,92.90638,1.6,5,5,5,41,-5.24,Nb
163,500,1,0,4,0,6.7589,92.90638,1.6,5,5,5,41,-5.66,Nb
164,0,1,0,5,0,7.0924,95.94,2.16,5,5,6,42,0.9,Mo
165,50,1,0,5,0,7.0924,95.94,2.16,5,5,6,42,-4.3,Mo
166,200,1,0,5,0,7.0924,95.94,2.16,5,5,6,42,-4.59,Mo
167,500,1,0,5,0,7.0924,95.94,2.16,5,5,6,42,-4.47,Mo
168,0,2,0,5,0,7.28,98.0,1.9,5,5,7,43,0.61,Tc
169,50,2,0,5,0,7.28,98.0,1.9,5,5,7,43,-3.65,Tc
170,200,2,0,5,0,7.28,98.0,1.9,5,5,7,43,-4.04,Tc
171,500,2,0,5,0,7.28,98.0,1.9,5,5,7,43,-4.04,Tc
172,0,1,0,7,0,7.3605,101.07,2.2,5,5,8,44,0.92,Ru
173,50,1,0,7,0,7.3605,101.07,2.2,5,5,8,44,-3.0,Ru
174,200,1,0,7,0,7.3605,101.07,2.2,5,5,8,44,-3.43,Ru
175,500,1,0,7,0,7.3605,101.07,2.2,5,5,8,44,-3.49,Ru
176,0,1,0,8,0,7.4589,102.9055,2.28,5,5,9,45,0.75,Rh
177,50,1,0,8,0,7.4589,102.9055,2.28,5,5,9,45,-1.87,Rh
178,200,1,0,8,0,7.4589,102.9055,2.28,5,5,9,45,-2.1,Rh
179,500,1,0,8,0,7.4589,102.9055,2.28,5,5,9,45,-2.0,Rh
180,0,0,0,10,0,8.3369,106.42,2.2,5,5,10,46,1.72,Pd
181,50,0,0,10,0,8.3369,106.42,2.2,5,5,10,46,-2.15,Pd
182,200,0,0,10,0,8.3369,106.42,2.2,5,5,10,46,-3.64,Pd
183,500,0,0,10,0,8.3369,106.42,2.2,5,5,10,46,-3.74,Pd
184,0,1,0,10,0,7.5762,107.8682,1.93,5,5,11,47,1.31,Ag
185,50,1,0,10,0,7.5762,107.8682,1.93,5,5,11,47,-3.46,Ag
186,200,1,0,10,0,7.5762,107.8682,1.93,5,5,11,47,-6.16,Ag
187,500,1,0,10,0,7.5762,107.8682,1.93,5,5,11,47,-8.09,Ag
188,0,2,0,10,0,8.9938,112.411,1.69,5,5,12,48,0.83,Cd
189,50,2,0,10,0,8.9938,112.411,1.69,5,5,12,48,-3.85,Cd
190,200,2,0,10,0,8.9938,112.411,1.69,5,5,12,48,-5.79,Cd
191,500,2,0,10,0,8.9938,112.411,1.69,5,5,12,48,-6.91,Cd
192,0,2,1,0,0,5.7864,114.818,1.78,5,5,13,49,-0.22,In
193,50,2,1,0,0,5.7864,114.818,1.78,5,5,13,49,-4.93,In
194,200,2,1,0,0,5.7864,114.818,1.78,5,5,13,49,-7.11,In
195,500,2,1,0,0,5.7864,114.818,1.78,5,5,13,49,-7.82,In
196,0,2,2,0,0,7.3439,118.71,1.96,5,5,14,50,1.27,Sn
197,50,2,2,0,0,7.3439,118.71,1.96,5,5,14,50,-3.35,Sn
198,200,2,2,0,0,7.3439,118.71,1.96,5,5,14,50,-5.72,Sn
199,500,2,2,0,0,7.3439,118.71,1.96,5,5,14,50,-7.11,Sn
200,0,2,3,0,0,8.6084,121.76,2.05,5,5,15,51,1.95,Sb
201,50,2,3,0,0,8.6084,121.76,2.05,5,5,15,51,-2.24,Sb
202,200,2,3,0,0,8.6084,121.76,2.05,5,5,15,51,-4.48,Sb
203,500,2,3,0,0,8.6084,121.76,2.05,5,5,15,51,-6.04,Sb
204,0,2,4,0,0,9.0096,127.6,2.1,5,5,16,52,2.58,Te
205,50,2,4,0,0,9.0096,127.6,2.1,5,5,16,52,-1.1,Te
206,200,2,4,0,0,9.0096,127.6,2.1,5,5,16,52,-3.1,Te
207,500,2,4,0,0,9.0096,127.6,2.1,5,5,16,52,-4.68,Te
208,0,2,5,0,0,10.4513,126.90446999999999,2.66,5,5,17,53,3.82,I
209,50,2,5,0,0,10.4513,126.90446999999999,2.66,5,5,17,53,0.47,I
210,200,2,5,0,0,10.4513,126.90446999999999,2.66,5,5,17,53,-1.41,I
211,500,2,5,0,0,10.4513,126.90446999999999,2.66,5,5,17,53,-3.03,I
212,0,2,6,0,0,12.1298,131.293,2.6,5,5,18,54,2.6,Xe
213,50,2,6,0,0,12.1298,131.293,2.6,5,5,18,54,-1.7,Xe
214,200,2,6,0,0,12.1298,131.293,2.6,5,5,18,54,-2.64,Xe
215,500,2,6,0,0,12.1298,131.293,2.6,5,5,18,54,-3.09,Xe
216,0,1,0,0,0,3.8939,132.9054519,0.79,6,6,1,55,-1.35,Cs
217,50,1,0,0,0,3.8939,132.9054519,0.79,6,6,1,55,-7.17,Cs
218,200,1,0,0,0,3.8939,132.9054519,0.79,6,6,1,55,-7.67,Cs
219,500,1,0,0,0,3.8939,132.9054519,0.79,6,6,1,55,-7.74,Cs
220,0,2,0,0,0,5.2117,137.327,0.89,6,6,2,56,-0.36,Ba
221,50,2,0,0,0,5.2117,137.327,0.89,6,6,2,56,-5.36,Ba
222,200,2,0,0,0,5.2117,137.327,0.89,6,6,2,56,-6.56,Ba
223,500,2,0,0,0,5.2117,137.327,0.89,6,6,2,56,-6.9,Ba
224,0,2,0,1,0,5.5769,138.90547,1.1,6,8,3,57,0.08,La
225,50,2,0,1,0,5.5769,138.90547,1.1,6,8,3,57,-5.59,La
226,200,2,0,1,0,5.5769,138.90547,1.1,6,8,3,57,-6.3,La
227,500,2,0,1,0,5.5769,138.90547,1.1,6,8,3,57,-7.52,La
228,0,2,0,1,1,5.5387,140.116,1.12,6,8,4,58,0.02,Ce
229,50,2,0,1,1,5.5387,140.116,1.12,6,8,4,58,-5.18,Ce
230,200,2,0,1,1,5.5387,140.116,1.12,6,8,4,58,-5.93,Ce
231,500,2,0,1,1,5.5387,140.116,1.12,6,8,4,58,-6.24,Ce
232,0,2,0,0,3,5.473,140.90765,1.13,6,8,5,59,0.11,Pr
233,50,2,0,0,3,5.473,140.90765,1.13,6,8,5,59,-5.24,Pr
234,200,2,0,0,3,5.473,140.90765,1.13,6,8,5,59,-5.95,Pr
235,500,2,0,0,3,5.473,140.90765,1.13,6,8,5,59,-6.22,Pr
236,0,2,0,0,4,5.525,144.24200000000002,1.14,6,8,6,60,0.18,Nd
237,50,2,0,0,4,5.525,144.24200000000002,1.14,6,8,6,60,-4.77,Nd
238,200,2,0,0,4,5.525,144.24200000000002,1.14,6,8,6,60,-5.97,Nd
239,500,2,0,0,4,5.525,144.24200000000002,1.14,6,8,6,60,-6.21,Nd
240,0,2,0,0,5,5.582000000000001,145.0,1.13,6,8,7,61,0.3,Pm
241,50,2,0,0,5,5.582000000000001,145.0,1.13,6,8,7,61,-5.3,Pm
242,200,2,0,0,5,5.582000000000001,145.0,1.13,6,8,7,61,-5.98,Pm
243,500,2,0,0,5,5.582000000000001,145.0,1.13,6,8,7,61,-6.2,Pm
244,0,2,0,0,6,5.6437,150.36,1.17,6,8,8,62,0.34,Sm
245,50,2,0,0,6,5.6437,150.36,1.17,6,8,8,62,-4.91,Sm
246,200,2,0,0,6,5.6437,150.36,1.17,6,8,8,62,-6.01,Sm
247,500,2,0,0,6,5.6437,150.36,1.17,6,8,8,62,-6.2,Sm
248,0,2,0,0,7,5.6704,151.964,1.2,6,8,9,63,0.34,Eu
249,50,2,0,0,7,5.6704,151.964,1.2,6,8,9,63,-4.98,Eu
250,200,2,0,0,7,5.6704,151.964,1.2,6,8,9,63,-6.07,Eu
251,500,2,0,0,7,5.6704,151.964,1.2,6,8,9,63,-6.23,Eu
252,0,2,0,1,7,6.1498,157.25,1.2,6,8,10,64,0.32,Gd
253,50,2,0,1,7,6.1498,157.25,1.2,6,8,10,64,-5.44,Gd
254,200,2,0,1,7,6.1498,157.25,1.2,6,8,10,64,-6.17,Gd
255,500,2,0,1,7,6.1498,157.25,1.2,6,8,10,64,-6.38,Gd
256,0,2,0,0,9,5.8638,158.92535,1.1,6,8,11,65,0.27,Tb
257,50,2,0,0,9,5.8638,158.92535,1.1,6,8,11,65,-5.13,Tb
258,200,2,0,0,9,5.8638,158.92535,1.1,6,8,11,65,-6.23,Tb
259,500,2,0,0,9,5.8638,158.92535,1.1,6,8,11,65,-6.41,Tb
260,0,2,0,0,10,5.9389,162.5,1.22,6,8,12,66,0.27,Dy
261,50,2,0,0,10,5.9389,162.5,1.22,6,8,12,66,-5.54,Dy
262,200,2,0,0,10,5.9389,162.5,1.22,6,8,12,66,-6.28,Dy
263,500,2,0,0,10,5.9389,162.5,1.22,6,8,12,66,-6.45,Dy
264,0,2,0,0,11,6.0215,164.93032,1.23,6,8,13,67,0.15,Ho
265,50,2,0,0,11,6.0215,164.93032,1.23,6,8,13,67,-5.59,Ho
266,200,2,0,0,11,6.0215,164.93032,1.23,6,8,13,67,-6.32,Ho
267,500,2,0,0,11,6.0215,164.93032,1.23,6,8,13,67,-6.47,Ho
268,0,2,0,0,12,6.1077,167.25900000000001,1.24,6,8,14,68,0.08,Er
269,50,2,0,0,12,6.1077,167.25900000000001,1.24,6,8,14,68,-5.65,Er
270,200,2,0,0,12,6.1077,167.25900000000001,1.24,6,8,14,68,-6.37,Er
271,500,2,0,0,12,6.1077,167.25900000000001,1.24,6,8,14,68,-6.5,Er
272,0,2,0,0,13,6.1843,168.93421,1.25,6,8,15,69,0.01,Tm
273,50,2,0,0,13,6.1843,168.93421,1.25,6,8,15,69,-5.7,Tm
274,200,2,0,0,13,6.1843,168.93421,1.25,6,8,15,69,-6.39,Tm
275,500,2,0,0,13,6.1843,168.93421,1.25,6,8,15,69,-6.47,Tm
276,0,2,0,0,14,6.2542,173.04,1.1,6,8,16,70,-0.19,Yb
277,50,2,0,0,14,6.2542,173.04,1.1,6,8,16,70,-5.71,Yb
278,200,2,0,0,14,6.2542,173.04,1.1,6,8,16,70,-6.38,Yb
279,500,2,0,0,14,6.2542,173.04,1.1,6,8,16,70,-6.43,Yb
280,0,2,0,1,14,5.4259,174.967,1.27,6,8,17,71,-0.24,Lu
281,50,2,0,1,14,5.4259,174.967,1.27,6,8,17,71,-5.8,Lu
282,200,2,0,1,14,5.4259,174.967,1.27,6,8,17,71,-6.51,Lu
283,500,2,0,1,14,5.4259,174.967,1.27,6,8,17,71,-6.42,Lu
284,0,2,0,2,14,6.8251,178.49,1.3,6,6,4,72,0.37,Hf
285,50,2,0,2,0,6.8251,178.49,1.3,6,6,4,72,-4.78,Hf
286,200,2,0,2,0,6.8251,178.49,1.3,6,6,4,72,-5.71,Hf
287,500,2,0,2,0,6.8251,178.49,1.3,6,6,4,72,-6.23,Hf
288,0,2,0,3,0,7.5496,180.94788,1.5,6,6,5,73,1.14,Ta
289,50,2,0,3,0,7.5496,180.94788,1.5,6,6,5,73,-3.83,Ta
290,200,2,0,3,0,7.5496,180.94788,1.5,6,6,5,73,-5.56,Ta
291,500,2,0,3,0,7.5496,180.94788,1.5,6,6,5,73,-6.0,Ta
292,0,2,0,4,0,7.864,183.84,2.36,6,6,6,74,1.62,W
293,50,2,0,4,0,7.864,183.84,2.36,6,6,6,74,-3.88,W
294,200,2,0,4,0,7.864,183.84,2.36,6,6,6,74,-4.75,W
295,500,2,0,4,0,7.864,183.84,2.36,6,6,6,74,-5.21,W
296,0,2,0,5,0,7.8335,186.207,1.9,6,6,7,75,1.07,Re
297,50,2,0,5,0,7.8335,186.207,1.9,6,6,7,75,-3.07,Re
298,200,2,0,5,0,7.8335,186.207,1.9,6,6,7,75,-4.1,Re
299,500,2,0,5,0,7.8335,186.207,1.9,6,6,7,75,-4.37,Re
300,0,2,0,6,0,8.4382,190.23,2.2,6,6,8,76,1.95,Os
301,50,2,0,6,0,8.4382,190.23,2.2,6,6,8,76,-2.64,Os
302,200,2,0,6,0,8.4382,190.23,2.2,6,6,8,76,-3.54,Os
303,500,2,0,6,0,8.4382,190.23,2.2,6,6,8,76,-3.68,Os
304,0,2,0,7,0,8.967,192.217,2.2,6,6,9,77,2.36,Ir
305,50,2,0,7,0,8.967,192.217,2.2,6,6,9,77,-2.04,Ir
306,200,2,0,7,0,8.967,192.217,2.2,6,6,9,77,-2.5,Ir
307,500,2,0,7,0,8.967,192.217,2.2,6,6,9,77,-2.56,Ir
308,0,1,0,9,0,8.9588,195.084,2.28,6,6,10,78,2.83,Pt
309,50,1,0,9,0,8.9588,195.084,2.28,6,6,10,78,-1.39,Pt
310,200,1,0,9,0,8.9588,195.084,2.28,6,6,10,78,-2.91,Pt
311,500,1,0,9,0,8.9588,195.084,2.28,6,6,10,78,-3.94,Pt
312,0,1,0,10,0,9.2255,196.966569,2.54,6,6,11,79,3.01,Au
313,50,1,0,10,0,9.2255,196.966569,2.54,6,6,11,79,-1.4,Au
314,200,1,0,10,0,9.2255,196.966569,2.54,6,6,11,79,-3.87,Au
315,500,1,0,10,0,9.2255,196.966569,2.54,6,6,11,79,-5.94,Au
316,0,2,0,10,0,10.4375,200.59,2.0,6,6,12,80,1.94,Hg
317,50,2,0,10,0,10.4375,200.59,2.0,6,6,12,80,-2.44,Hg
318,200,2,0,10,0,10.4375,200.59,2.0,6,6,12,80,-4.31,Hg
319,500,2,0,10,0,10.4375,200.59,2.0,6,6,12,80,-5.36,Hg
320,0,2,1,0,0,6.1082,204.3833,1.62,6,6,13,81,0.07,Tl
321,50,2,1,0,0,6.1082,204.3833,1.62,6,6,13,81,-4.44,Tl
322,200,2,1,0,0,6.1082,204.3833,1.62,6,6,13,81,-6.4,Tl
323,500,2,1,0,0,6.1082,204.3833,1.62,6,6,13,81,-7.49,Tl
324,0,2,2,0,0,7.4167,207.2,2.33,6,6,14,82,0.86,Pb
325,50,2,2,0,0,7.4167,207.2,2.33,6,6,14,82,-3.64,Pb
326,200,2,2,0,0,7.4167,207.2,2.33,6,6,14,82,-5.74,Pb
327,500,2,2,0,0,7.4167,207.2,2.33,6,6,14,82,-6.85,Pb
328,0,2,3,0,0,7.2855,208.9804,2.02,6,6,15,83,1.22,Bi
329,50,2,3,0,0,7.2855,208.9804,2.02,6,6,15,83,-3.09,Bi
330,200,2,3,0,0,7.2855,208.9804,2.02,6,6,15,83,-5.22,Bi
331,500,2,3,0,0,7.2855,208.9804,2.02,6,6,15,83,-6.76,Bi
332,0,2,4,0,0,8.414,210.0,2.0,6,6,16,84,2.05,Po
333,50,2,4,0,0,8.414,210.0,2.0,6,6,16,84,-1.84,Po
334,200,2,4,0,0,8.414,210.0,2.0,6,6,16,84,-3.71,Po
335,500,2,4,0,0,8.414,210.0,2.0,6,6,16,84,-5.49,Po
336,0,2,5,0,0,9.5,210.0,2.2,6,6,17,85,2.98,At
337,50,2,5,0,0,9.5,210.0,2.2,6,6,17,85,-0.51,At
338,200,2,5,0,0,9.5,210.0,2.2,6,6,17,85,-2.31,At
339,500,2,5,0,0,9.5,210.0,2.2,6,6,17,85,-3.96,At
340,0,2,6,0,0,10.7485,220.0,2.2,6,6,18,86,1.86,Rn
341,50,2,6,0,0,10.7485,220.0,2.2,6,6,18,86,-2.97,Rn
342,200,2,6,0,0,10.7485,220.0,2.2,6,6,18,86,-4.3,Rn
343,500,2,6,0,0,10.7485,220.0,2.2,6,6,18,86,-5.1,Rn
344,0,1,0,0,0,4.0727,223.0,0.7,7,7,1,87,-0.86,Fr
345,50,1,0,0,0,4.0727,223.0,0.7,7,7,1,87,-6.93,Fr
346,200,1,0,0,0,4.0727,223.0,0.7,7,7,1,87,-7.77,Fr
347,500,1,0,0,0,4.0727,223.0,0.7,7,7,1,87,-7.32,Fr
348,0,2,0,0,0,5.2784,226.0,0.9,7,7,2,88,-0.52,Ra
349,50,2,0,0,0,5.2784,226.0,0.9,7,7,2,88,-6.04,Ra
350,200,2,0,0,0,5.2784,226.0,0.9,7,7,2,88,-7.44,Ra
351,500,2,0,0,0,5.2784,226.0,0.9,7,7,2,88,-7.42,Ra
352,0,2,0,1,0,5.3807,227.0,1.1,7,9,3,89,0.06,Ac
353,50,2,0,1,0,5.3807,227.0,1.1,7,9,3,89,-5.64,Ac
354,200,2,0,1,0,5.3807,227.0,1.1,7,9,3,89,-7.09,Ac
355,500,2,0,1,0,5.3807,227.0,1.1,7,9,3,89,-7.91,Ac
356,0,2,0,2,0,6.3067,232.03806,1.3,7,9,4,90,0.49,Th
357,50,2,0,2,0,6.3067,232.03806,1.3,7,9,4,90,-5.2,Th
358,200,2,0,2,0,6.3067,232.03806,1.3,7,9,4,90,-6.53,Th
359,500,2,0,2,0,6.3067,232.03806,1.3,7,9,4,90,-7.25,Th
360,0,2,0,1,2,5.89,231.03588,1.5,7,9,5,91,-0.07,Pa
361,50,2,0,1,2,5.89,231.03588,1.5,7,9,5,91,-5.19,Pa
362,200,2,0,1,2,5.89,231.03588,1.5,7,9,5,91,-6.56,Pa
363,500,2,0,1,2,5.89,231.03588,1.5,7,9,5,91,-7.2,Pa
364,0,2,0,1,3,6.1939,238.02891,1.38,7,9,6,92,0.11,U
365,50,2,0,1,3,6.1939,238.02891,1.38,7,9,6,92,-5.28,U
366,200,2,0,1,3,6.1939,238.02891,1.38,7,9,6,92,-6.44,U
367,500,2,0,1,3,6.1939,238.02891,1.38,7,9,6,92,-7.2,U
368,0,2,0,1,4,6.2657,237.0,1.36,7,9,7,93,-0.16,Np